# vtk DataFile Version 5.1
vtk output
ASCII
DATASET UNSTRUCTURED_GRID
POINTS 81 float
0.9125 0 0 0.925 0 0 0.9375 0 0 
0.95 0 0 0.9625 0 0 0.975 0 0 
0.9875 0 0 1 0 0 0.8875 0 0 
0.9 0 0 0.5875 0 0 0.6 0 0 
0.6125 0 0 0.625 0 0 0.6375 0 0 
0.65 0 0 0.6625 0 0 0.675 0 0 
0.6875 0 0 0.7 0 0 0.7125 0 0 
0.725 0 0 0.7375 0 0 0.75 0 0 
0.7625 0 0 0.775 0 0 0.7875 0 0 
0.8 0 0 0.8125 0 0 0.825 0 0 
0.8375 0 0 0.85 0 0 0.8625 0 0 
0.875 0 0 0.5375 0 0 0.55 0 0 
0.5625 0 0 0.575 0 0 0.2 0 0 
0.2125 0 0 0.225 0 0 0.2375 0 0 
0.25 0 0 0.2625 0 0 0.275 0 0 
0.2875 0 0 0.3 0 0 0.3125 0 0 
0.325 0 0 0.3375 0 0 0.35 0 0 
0.3625 0 0 0.375 0 0 0.3875 0 0 
0.4 0 0 0.4125 0 0 0.425 0 0 
0.4375 0 0 0.45 0 0 0.4625 0 0 
0.475 0 0 0.4875 0 0 0.5 0 0 
0.5125 0 0 0.525 0 0 0.1875 0 0 
0 0 0 0.0125 0 0 0.025 0 0 
0.0375 0 0 0.05 0 0 0.0625 0 0 
0.075 0 0 0.0875 0 0 0.1 0 0 
0.1125 0 0 0.125 0 0 0.1375 0 0 
0.15 0 0 0.1625 0 0 0.175 0 0 

POINT_DATA 81
SCALARS Temperature double
LOOKUP_TABLE default
303.78 303.709 303.652 303.616 303.557 303.51 303.286 302.843 303.88 
303.835 304.154 304.153 304.151 304.15 304.147 304.144 304.141 304.137 
304.132 304.127 304.121 304.113 304.105 304.096 304.087 304.076 304.063 
304.047 304.03 304.009 303.986 303.962 303.938 303.909 304.153 304.154 
304.154 304.154 303.856 303.887 303.915 303.939 303.961 303.981 304 
304.018 304.034 304.048 304.061 304.072 304.083 304.092 304.101 304.109 
304.116 304.122 304.128 304.133 304.137 304.141 304.144 304.147 304.149 
304.151 304.152 303.823 302.282 302.736 302.897 303.033 303.119 303.218 
303.317 303.405 303.483 303.553 303.613 303.66 303.706 303.747 303.786 

