# vtk DataFile Version 2.0

ASCII

DATASET UNSTRUCTURED_GRID

POINTS 161 double 

1.24794802699999970e-03  0.00000000000000000e+00  0.00000000000000000e+00
3.75646052150000040e-03  0.00000000000000000e+00  0.00000000000000000e+00
6.29033344650000142e-03  0.00000000000000000e+00  0.00000000000000000e+00
8.84982319200000069e-03  0.00000000000000000e+00  0.00000000000000000e+00
1.14351887349999973e-02  0.00000000000000000e+00  0.00000000000000000e+00
1.40466916700000017e-02  0.00000000000000000e+00  0.00000000000000000e+00
1.66845962450000024e-02  0.00000000000000000e+00  0.00000000000000000e+00
1.93491693749999957e-02  0.00000000000000000e+00  0.00000000000000000e+00
2.20406806649999960e-02  0.00000000000000000e+00  0.00000000000000000e+00
2.47594024549999993e-02  0.00000000000000000e+00  0.00000000000000000e+00
2.75056098449999974e-02  0.00000000000000000e+00  0.00000000000000000e+00
3.02795806999999993e-02  0.00000000000000000e+00  0.00000000000000000e+00
3.30815956999999938e-02  0.00000000000000000e+00  0.00000000000000000e+00
3.59119383700000003e-02  0.00000000000000000e+00  0.00000000000000000e+00
3.87708950949999936e-02  0.00000000000000000e+00  0.00000000000000000e+00
4.16587551549999976e-02  0.00000000000000000e+00  0.00000000000000000e+00
4.45758107500000000e-02  0.00000000000000000e+00  0.00000000000000000e+00
4.75223570449999980e-02  0.00000000000000000e+00  0.00000000000000000e+00
5.04986921849999923e-02  0.00000000000000000e+00  0.00000000000000000e+00
5.35051173199999966e-02  0.00000000000000000e+00  0.00000000000000000e+00
5.65419366599999931e-02  0.00000000000000000e+00  0.00000000000000000e+00
5.96094574799999957e-02  0.00000000000000000e+00  0.00000000000000000e+00
6.27079901650000049e-02  0.00000000000000000e+00  0.00000000000000000e+00
6.58378482349999822e-02  0.00000000000000000e+00  0.00000000000000000e+00
6.89993483800000057e-02  0.00000000000000000e+00  0.00000000000000000e+00
7.21928105049999963e-02  0.00000000000000000e+00  0.00000000000000000e+00
7.54185577250000017e-02  0.00000000000000000e+00  0.00000000000000000e+00
7.86769164349999939e-02  0.00000000000000000e+00  0.00000000000000000e+00
8.19682163399999969e-02  0.00000000000000000e+00  0.00000000000000000e+00
8.52927904600000036e-02  0.00000000000000000e+00  0.00000000000000000e+00
8.86509751850000083e-02  0.00000000000000000e+00  0.00000000000000000e+00
9.20431103099999814e-02  0.00000000000000000e+00  0.00000000000000000e+00
9.54695390700000118e-02  0.00000000000000000e+00  0.00000000000000000e+00
9.89306081899999773e-02  0.00000000000000000e+00  0.00000000000000000e+00
1.02426667799999996e-01  0.00000000000000000e+00  0.00000000000000000e+00
1.05958071700000003e-01  0.00000000000000000e+00  0.00000000000000000e+00
1.09525177249999980e-01  0.00000000000000000e+00  0.00000000000000000e+00
1.13128345299999974e-01  0.00000000000000000e+00  0.00000000000000000e+00
1.16767940499999986e-01  0.00000000000000000e+00  0.00000000000000000e+00
1.20444331099999996e-01  0.00000000000000000e+00  0.00000000000000000e+00
1.24157889049999998e-01  0.00000000000000000e+00  0.00000000000000000e+00
1.27908990150000013e-01  0.00000000000000000e+00  0.00000000000000000e+00
1.31698013949999998e-01  0.00000000000000000e+00  0.00000000000000000e+00
1.35525343800000003e-01  0.00000000000000000e+00  0.00000000000000000e+00
1.39391366999999988e-01  0.00000000000000000e+00  0.00000000000000000e+00
1.43296474750000014e-01  0.00000000000000000e+00  0.00000000000000000e+00
1.47241062149999991e-01  0.00000000000000000e+00  0.00000000000000000e+00
1.51225528299999995e-01  0.00000000000000000e+00  0.00000000000000000e+00
1.55250276399999998e-01  0.00000000000000000e+00  0.00000000000000000e+00
1.59315713750000004e-01  0.00000000000000000e+00  0.00000000000000000e+00
1.63422251650000017e-01  0.00000000000000000e+00  0.00000000000000000e+00
1.67570305599999969e-01  0.00000000000000000e+00  0.00000000000000000e+00
1.71760295299999977e-01  0.00000000000000000e+00  0.00000000000000000e+00
1.75992644749999982e-01  0.00000000000000000e+00  0.00000000000000000e+00
1.80267782200000004e-01  0.00000000000000000e+00  0.00000000000000000e+00
1.84586140200000026e-01  0.00000000000000000e+00  0.00000000000000000e+00
1.88948155750000013e-01  0.00000000000000000e+00  0.00000000000000000e+00
1.93354270150000035e-01  0.00000000000000000e+00  0.00000000000000000e+00
1.97804929249999956e-01  0.00000000000000000e+00  0.00000000000000000e+00
2.02300583449999988e-01  0.00000000000000000e+00  0.00000000000000000e+00
2.06841687549999986e-01  0.00000000000000000e+00  0.00000000000000000e+00
2.11428701050000001e-01  0.00000000000000000e+00  0.00000000000000000e+00
2.16062088149999998e-01  0.00000000000000000e+00  0.00000000000000000e+00
2.20742317599999960e-01  0.00000000000000000e+00  0.00000000000000000e+00
2.25469862999999965e-01  0.00000000000000000e+00  0.00000000000000000e+00
2.30245202699999985e-01  0.00000000000000000e+00  0.00000000000000000e+00
2.35068819850000027e-01  0.00000000000000000e+00  0.00000000000000000e+00
2.39941202549999982e-01  0.00000000000000000e+00  0.00000000000000000e+00
2.44862843849999984e-01  0.00000000000000000e+00  0.00000000000000000e+00
2.49834241749999963e-01  0.00000000000000000e+00  0.00000000000000000e+00
2.54855899199999958e-01  0.00000000000000000e+00  0.00000000000000000e+00
2.59928324299999958e-01  0.00000000000000000e+00  0.00000000000000000e+00
2.65052030350000023e-01  0.00000000000000000e+00  0.00000000000000000e+00
2.70227535800000085e-01  0.00000000000000000e+00  0.00000000000000000e+00
2.75455364299999894e-01  0.00000000000000000e+00  0.00000000000000000e+00
2.80736044849999977e-01  0.00000000000000000e+00  0.00000000000000000e+00
2.86070111749999967e-01  0.00000000000000000e+00  0.00000000000000000e+00
2.91458104699999998e-01  0.00000000000000000e+00  0.00000000000000000e+00
2.96900568949999943e-01  0.00000000000000000e+00  0.00000000000000000e+00
3.02398055150000011e-01  0.00000000000000000e+00  0.00000000000000000e+00
3.07951119499999981e-01  0.00000000000000000e+00  0.00000000000000000e+00
3.13560323949999997e-01  0.00000000000000000e+00  0.00000000000000000e+00
3.19226236050000001e-01  0.00000000000000000e+00  0.00000000000000000e+00
3.24949429100000020e-01  0.00000000000000000e+00  0.00000000000000000e+00
3.30730482200000009e-01  0.00000000000000000e+00  0.00000000000000000e+00
3.36569980300000016e-01  0.00000000000000000e+00  0.00000000000000000e+00
3.42468514249999967e-01  0.00000000000000000e+00  0.00000000000000000e+00
3.48426680900000008e-01  0.00000000000000000e+00  0.00000000000000000e+00
3.54445083150000007e-01  0.00000000000000000e+00  0.00000000000000000e+00
3.60524329899999996e-01  0.00000000000000000e+00  0.00000000000000000e+00
3.66665036300000025e-01  0.00000000000000000e+00  0.00000000000000000e+00
3.72867823699999934e-01  0.00000000000000000e+00  0.00000000000000000e+00
3.79133319699999916e-01  0.00000000000000000e+00  0.00000000000000000e+00
3.85462158300000024e-01  0.00000000000000000e+00  0.00000000000000000e+00
3.91854979899999956e-01  0.00000000000000000e+00  0.00000000000000000e+00
3.98312431300000047e-01  0.00000000000000000e+00  0.00000000000000000e+00
4.04835165899999960e-01  0.00000000000000000e+00  0.00000000000000000e+00
4.11423843699999903e-01  0.00000000000000000e+00  0.00000000000000000e+00
4.18079131399999970e-01  0.00000000000000000e+00  0.00000000000000000e+00
4.24801702399999981e-01  0.00000000000000000e+00  0.00000000000000000e+00
4.31592236849999977e-01  0.00000000000000000e+00  0.00000000000000000e+00
4.38451421899999916e-01  0.00000000000000000e+00  0.00000000000000000e+00
4.45379951599999935e-01  0.00000000000000000e+00  0.00000000000000000e+00
4.52378527000000086e-01  0.00000000000000000e+00  0.00000000000000000e+00
4.59447856250000009e-01  0.00000000000000000e+00  0.00000000000000000e+00
4.66588654649999934e-01  0.00000000000000000e+00  0.00000000000000000e+00
4.73801644749999917e-01  0.00000000000000000e+00  0.00000000000000000e+00
4.81087556350000056e-01  0.00000000000000000e+00  0.00000000000000000e+00
4.88447126649999841e-01  0.00000000000000000e+00  0.00000000000000000e+00
4.95881100349999937e-01  0.00000000000000000e+00  0.00000000000000000e+00
5.03390229650000021e-01  0.00000000000000000e+00  0.00000000000000000e+00
5.10975274400000012e-01  0.00000000000000000e+00  0.00000000000000000e+00
5.18637002049999962e-01  0.00000000000000000e+00  0.00000000000000000e+00
5.26376187800000062e-01  0.00000000000000000e+00  0.00000000000000000e+00
5.34193614799999938e-01  0.00000000000000000e+00  0.00000000000000000e+00
5.42090074000000088e-01  0.00000000000000000e+00  0.00000000000000000e+00
5.50066364399999896e-01  0.00000000000000000e+00  0.00000000000000000e+00
5.58123293149999977e-01  0.00000000000000000e+00  0.00000000000000000e+00
5.66261675399999942e-01  0.00000000000000000e+00  0.00000000000000000e+00
5.74482334649999982e-01  0.00000000000000000e+00  0.00000000000000000e+00
5.82786102699999975e-01  0.00000000000000000e+00  0.00000000000000000e+00
5.91173819749999940e-01  0.00000000000000000e+00  0.00000000000000000e+00
5.99646334549999938e-01  0.00000000000000000e+00  0.00000000000000000e+00
6.08204504300000059e-01  0.00000000000000000e+00  0.00000000000000000e+00
6.16849194999999906e-01  0.00000000000000000e+00  0.00000000000000000e+00
6.25581281350000018e-01  0.00000000000000000e+00  0.00000000000000000e+00
6.34401646899999894e-01  0.00000000000000000e+00  0.00000000000000000e+00
6.43311184150000104e-01  0.00000000000000000e+00  0.00000000000000000e+00
6.52310794550000073e-01  0.00000000000000000e+00  0.00000000000000000e+00
6.61401388750000097e-01  0.00000000000000000e+00  0.00000000000000000e+00
6.70583886600000012e-01  0.00000000000000000e+00  0.00000000000000000e+00
6.79859217199999866e-01  0.00000000000000000e+00  0.00000000000000000e+00
6.89228318999999923e-01  0.00000000000000000e+00  0.00000000000000000e+00
6.98692140099999914e-01  0.00000000000000000e+00  0.00000000000000000e+00
7.08251638049999910e-01  0.00000000000000000e+00  0.00000000000000000e+00
7.17907780099999893e-01  0.00000000000000000e+00  0.00000000000000000e+00
7.27661543349999995e-01  0.00000000000000000e+00  0.00000000000000000e+00
7.37513914700000051e-01  0.00000000000000000e+00  0.00000000000000000e+00
7.47465891050000053e-01  0.00000000000000000e+00  0.00000000000000000e+00
7.57518479349999940e-01  0.00000000000000000e+00  0.00000000000000000e+00
7.67672696800000054e-01  0.00000000000000000e+00  0.00000000000000000e+00
7.77929570850000141e-01  0.00000000000000000e+00  0.00000000000000000e+00
7.88290139300000248e-01  0.00000000000000000e+00  0.00000000000000000e+00
7.98755450499999964e-01  0.00000000000000000e+00  0.00000000000000000e+00
8.09326563399999976e-01  0.00000000000000000e+00  0.00000000000000000e+00
8.20004547549999963e-01  0.00000000000000000e+00  0.00000000000000000e+00
8.30790483449999839e-01  0.00000000000000000e+00  0.00000000000000000e+00
8.41685462449999977e-01  0.00000000000000000e+00  0.00000000000000000e+00
8.52690586949999996e-01  0.00000000000000000e+00  0.00000000000000000e+00
8.63806970499999882e-01  0.00000000000000000e+00  0.00000000000000000e+00
8.75035737849999884e-01  0.00000000000000000e+00  0.00000000000000000e+00
8.86378025249999979e-01  0.00000000000000000e+00  0.00000000000000000e+00
8.97834980349999978e-01  0.00000000000000000e+00  0.00000000000000000e+00
9.09407762349999982e-01  0.00000000000000000e+00  0.00000000000000000e+00
9.21097542249999846e-01  0.00000000000000000e+00  0.00000000000000000e+00
9.32905502949999965e-01  0.00000000000000000e+00  0.00000000000000000e+00
9.44832839149999937e-01  0.00000000000000000e+00  0.00000000000000000e+00
9.56880757700000029e-01  0.00000000000000000e+00  0.00000000000000000e+00
9.69050477650000075e-01  0.00000000000000000e+00  0.00000000000000000e+00
9.81343230399999933e-01  0.00000000000000000e+00  0.00000000000000000e+00
9.93760259849999938e-01  0.00000000000000000e+00  0.00000000000000000e+00

CELLS 0 0


CELL_TYPES 0


POINT_DATA 161

SCALARS Rank unsigned_int
LOOKUP_TABLE default
0 0 0 0 0 0 0 0 0 0 0 0 0 0 0 0 0 0 0 0 0 0 0 0 0 0 0 0 0 0 0 0 0 0 0 0 0 0 0 0 0 0 0 0 0 0 0 0 0 0 0 0 0 0 0 0 0 0 0 0 0 0 0 0 0 0 0 0 0 0 0 0 0 0 0 0 0 0 0 0 0 0 0 0 0 0 0 0 0 0 0 0 0 0 0 0 0 0 0 0 0 0 0 0 0 0 0 0 0 0 0 0 0 0 0 0 0 0 0 0 0 0 0 0 0 0 0 0 0 0 0 0 0 0 0 0 0 0 0 0 0 0 0 0 0 0 0 0 0 0 0 0 0 0 0 0 0 0 0 0 0 

SCALARS Temperature double
LOOKUP_TABLE default
3.02510498551479202e+02
3.02632909508789908e+02
3.02681222868658040e+02
3.02748295532059501e+02
3.02806432570853758e+02
3.02853259322043471e+02
3.02871232080371328e+02
3.02906430152356734e+02
3.02941393345886752e+02
3.02973707836893936e+02
3.02995721836135147e+02
3.03025101903801158e+02
3.03054692738322728e+02
3.03082437662852897e+02
3.03110732531582300e+02
3.03137995529514058e+02
3.03163483557679683e+02
3.03183443241366490e+02
3.03207092974579723e+02
3.03230706891841294e+02
3.03252624581151849e+02
3.03275648881980430e+02
3.03298380096523601e+02
3.03319880864290099e+02
3.03341714137955364e+02
3.03363001658585063e+02
3.03382692829029850e+02
3.03402968400993416e+02
3.03422787887558968e+02
3.03441184497148015e+02
3.03460112552541659e+02
3.03478630685137944e+02
3.03495856079957605e+02
3.03513570185193032e+02
3.03530911041128320e+02
3.03547049811239788e+02
3.03563671965064827e+02
3.03579966497493672e+02
3.03595169351774700e+02
3.03610797091166830e+02
3.03626064475190958e+02
3.03639735149639534e+02
3.03655051101946185e+02
3.03671686524643519e+02
3.03686887224580175e+02
3.03701283285766579e+02
3.03713833564074378e+02
3.03727717444732548e+02
3.03742340612783835e+02
3.03755933022613419e+02
3.03768796496190305e+02
3.03779901463161423e+02
3.03792213792717916e+02
3.03804739015167286e+02
3.03817184243285965e+02
3.03829548119379467e+02
3.03842000548590079e+02
3.03853925067748264e+02
3.03865789702552377e+02
3.03876393980086277e+02
3.03884916712515462e+02
3.03894714286435942e+02
3.03904623102244614e+02
3.03914578229436643e+02
3.03924590634981598e+02
3.03934244870832345e+02
3.03943576641004825e+02
3.03952718514904006e+02
3.03961594503599770e+02
3.03970105099653779e+02
3.03978425498893614e+02
3.03986385011008679e+02
3.03994088242232181e+02
3.04001644637431809e+02
3.04008862624685889e+02
3.04015960953015167e+02
3.04022754858388225e+02
3.04029369910655475e+02
3.04035360409876091e+02
3.04042007247316121e+02
3.04049609176960928e+02
3.04055951343186905e+02
3.04061521510245541e+02
3.04066879514743903e+02
3.04071641155351642e+02
3.04076110657367678e+02
3.04081114651443613e+02
3.04086832718050402e+02
3.04091560727558317e+02
3.04095635261435575e+02
3.04099130503432548e+02
3.04103141366122372e+02
3.04107705045816431e+02
3.04111118112491965e+02
3.04114766108884339e+02
3.04118692032364322e+02
3.04121981632845632e+02
3.04124673317895883e+02
3.04127893208094349e+02
3.04130596247464155e+02
3.04132800533337502e+02
3.04135412190404168e+02
3.04137373551263352e+02
3.04139464924535389e+02
3.04141620819722561e+02
3.04143797579199315e+02
3.04145477123607691e+02
3.04146663054142891e+02
3.04148094084614684e+02
3.04149132904030751e+02
3.04150190608741752e+02
3.04151217285919813e+02
3.04152153231120337e+02
3.04152904895571567e+02
3.04153422115047704e+02
3.04153670508196512e+02
3.04153869884705216e+02
3.04153924935428108e+02
3.04153766923742694e+02
3.04153513474486942e+02
3.04153146916650144e+02
3.04152507775577078e+02
3.04151617059303135e+02
3.04150504719990749e+02
3.04149112103009031e+02
3.04148040742202113e+02
3.04146454229308517e+02
3.04144458740791777e+02
3.04142031684263316e+02
3.04139277602578147e+02
3.04136154331596401e+02
3.04132631313433421e+02
3.04128673666425243e+02
3.04124241344953134e+02
3.04119289428676666e+02
3.04113767168476613e+02
3.04107617265407328e+02
3.04100774953906864e+02
3.04093166927139066e+02
3.04084710050599369e+02
3.04075309794586133e+02
3.04064858289794756e+02
3.04053231844108097e+02
3.04040287612823477e+02
3.04025858935924589e+02
3.04009748150280416e+02
3.03991711432104807e+02
3.03971440711027356e+02
3.03948462875319365e+02
3.03921294137360746e+02
3.03887209755633251e+02
3.03852604958447614e+02
3.03817783039865731e+02
3.03777347954772040e+02
3.03731092841031341e+02
3.03677436526474708e+02
3.03619886075436227e+02
3.03510546914883037e+02
3.03412755314119181e+02
3.03283729240265245e+02
3.03116098319314574e+02

SCALARS Heat-Flux double
LOOKUP_TABLE default
0.00000000000000000e+00
0.00000000000000000e+00
0.00000000000000000e+00
0.00000000000000000e+00
0.00000000000000000e+00
0.00000000000000000e+00
0.00000000000000000e+00
0.00000000000000000e+00
0.00000000000000000e+00
0.00000000000000000e+00
0.00000000000000000e+00
0.00000000000000000e+00
0.00000000000000000e+00
0.00000000000000000e+00
0.00000000000000000e+00
0.00000000000000000e+00
0.00000000000000000e+00
0.00000000000000000e+00
0.00000000000000000e+00
0.00000000000000000e+00
0.00000000000000000e+00
0.00000000000000000e+00
0.00000000000000000e+00
0.00000000000000000e+00
0.00000000000000000e+00
0.00000000000000000e+00
0.00000000000000000e+00
0.00000000000000000e+00
0.00000000000000000e+00
0.00000000000000000e+00
0.00000000000000000e+00
0.00000000000000000e+00
0.00000000000000000e+00
0.00000000000000000e+00
0.00000000000000000e+00
0.00000000000000000e+00
0.00000000000000000e+00
0.00000000000000000e+00
0.00000000000000000e+00
0.00000000000000000e+00
0.00000000000000000e+00
0.00000000000000000e+00
0.00000000000000000e+00
0.00000000000000000e+00
0.00000000000000000e+00
0.00000000000000000e+00
0.00000000000000000e+00
0.00000000000000000e+00
0.00000000000000000e+00
0.00000000000000000e+00
0.00000000000000000e+00
0.00000000000000000e+00
0.00000000000000000e+00
0.00000000000000000e+00
0.00000000000000000e+00
0.00000000000000000e+00
0.00000000000000000e+00
0.00000000000000000e+00
0.00000000000000000e+00
0.00000000000000000e+00
0.00000000000000000e+00
0.00000000000000000e+00
0.00000000000000000e+00
0.00000000000000000e+00
0.00000000000000000e+00
0.00000000000000000e+00
0.00000000000000000e+00
0.00000000000000000e+00
0.00000000000000000e+00
0.00000000000000000e+00
0.00000000000000000e+00
0.00000000000000000e+00
0.00000000000000000e+00
0.00000000000000000e+00
0.00000000000000000e+00
0.00000000000000000e+00
0.00000000000000000e+00
0.00000000000000000e+00
0.00000000000000000e+00
0.00000000000000000e+00
0.00000000000000000e+00
0.00000000000000000e+00
0.00000000000000000e+00
0.00000000000000000e+00
0.00000000000000000e+00
0.00000000000000000e+00
0.00000000000000000e+00
0.00000000000000000e+00
0.00000000000000000e+00
0.00000000000000000e+00
0.00000000000000000e+00
0.00000000000000000e+00
0.00000000000000000e+00
0.00000000000000000e+00
0.00000000000000000e+00
0.00000000000000000e+00
0.00000000000000000e+00
0.00000000000000000e+00
0.00000000000000000e+00
0.00000000000000000e+00
0.00000000000000000e+00
0.00000000000000000e+00
0.00000000000000000e+00
0.00000000000000000e+00
0.00000000000000000e+00
0.00000000000000000e+00
0.00000000000000000e+00
0.00000000000000000e+00
0.00000000000000000e+00
0.00000000000000000e+00
0.00000000000000000e+00
0.00000000000000000e+00
0.00000000000000000e+00
0.00000000000000000e+00
0.00000000000000000e+00
0.00000000000000000e+00
0.00000000000000000e+00
0.00000000000000000e+00
0.00000000000000000e+00
0.00000000000000000e+00
0.00000000000000000e+00
0.00000000000000000e+00
0.00000000000000000e+00
0.00000000000000000e+00
0.00000000000000000e+00
0.00000000000000000e+00
0.00000000000000000e+00
0.00000000000000000e+00
0.00000000000000000e+00
0.00000000000000000e+00
0.00000000000000000e+00
0.00000000000000000e+00
0.00000000000000000e+00
0.00000000000000000e+00
0.00000000000000000e+00
0.00000000000000000e+00
0.00000000000000000e+00
0.00000000000000000e+00
0.00000000000000000e+00
0.00000000000000000e+00
0.00000000000000000e+00
0.00000000000000000e+00
0.00000000000000000e+00
0.00000000000000000e+00
0.00000000000000000e+00
0.00000000000000000e+00
0.00000000000000000e+00
0.00000000000000000e+00
0.00000000000000000e+00
0.00000000000000000e+00
0.00000000000000000e+00
0.00000000000000000e+00
0.00000000000000000e+00
0.00000000000000000e+00
0.00000000000000000e+00
0.00000000000000000e+00
0.00000000000000000e+00
0.00000000000000000e+00
0.00000000000000000e+00
0.00000000000000000e+00
0.00000000000000000e+00

