# vtk DataFile Version 5.1
vtk output
ASCII
DATASET UNSTRUCTURED_GRID
POINTS 81 float
0 0 0 0.0125 0 0 0.025 0 0 
0.0375 0 0 0.05 0 0 0.0625 0 0 
0.075 0 0 0.0875 0 0 0.1 0 0 
0.1125 0 0 0.125 0 0 0.1375 0 0 
0.15 0 0 0.1625 0 0 0.175 0 0 
0.1875 0 0 0.2 0 0 0.2125 0 0 
0.225 0 0 0.2375 0 0 0.25 0 0 
0.2625 0 0 0.275 0 0 0.2875 0 0 
0.3 0 0 0.3125 0 0 0.325 0 0 
0.3375 0 0 0.35 0 0 0.3625 0 0 
0.375 0 0 0.3875 0 0 0.4 0 0 
0.4125 0 0 0.425 0 0 0.4375 0 0 
0.45 0 0 0.4625 0 0 0.475 0 0 
0.4875 0 0 0.5 0 0 0.5125 0 0 
0.525 0 0 0.5375 0 0 0.55 0 0 
0.5625 0 0 0.575 0 0 0.5875 0 0 
0.6 0 0 0.6125 0 0 0.625 0 0 
0.6375 0 0 0.65 0 0 0.6625 0 0 
0.675 0 0 0.6875 0 0 0.7 0 0 
0.7125 0 0 0.725 0 0 0.7375 0 0 
0.75 0 0 0.7625 0 0 0.775 0 0 
0.7875 0 0 0.8 0 0 0.8125 0 0 
0.825 0 0 0.8375 0 0 0.85 0 0 
0.8625 0 0 0.875 0 0 0.8875 0 0 
0.9 0 0 0.9125 0 0 0.925 0 0 
0.9375 0 0 0.95 0 0 0.9625 0 0 
0.975 0 0 0.9875 0 0 1 0 0 

POINT_DATA 81
SCALARS Temperature double
LOOKUP_TABLE default
302.448 302.787 302.954 303.102 303.205 303.313 303.397 303.467 303.522 
303.583 303.628 303.674 303.718 303.763 303.796 303.829 303.864 303.889 
303.914 303.938 303.961 303.986 304.005 304.022 304.035 304.05 304.063 
304.074 304.083 304.09 304.098 304.106 304.113 304.118 304.122 304.126 
304.13 304.134 304.137 304.139 304.141 304.142 304.143 304.143 304.143 
304.143 304.142 304.14 304.139 304.136 304.134 304.13 304.126 304.121 
304.116 304.11 304.103 304.095 304.087 304.078 304.068 304.054 304.04 
304.024 304.008 303.99 303.966 303.94 303.912 303.882 303.851 303.806 
303.759 303.708 303.651 303.59 303.498 303.398 303.277 303.115 302.833 

