# vtk DataFile Version 2.0

ASCII

DATASET UNSTRUCTURED_GRID

POINTS 161 double 

1.24794802699999970e-03  0.00000000000000000e+00  0.00000000000000000e+00
3.75646052150000040e-03  0.00000000000000000e+00  0.00000000000000000e+00
6.29033344650000142e-03  0.00000000000000000e+00  0.00000000000000000e+00
8.84982319200000069e-03  0.00000000000000000e+00  0.00000000000000000e+00
1.14351887349999973e-02  0.00000000000000000e+00  0.00000000000000000e+00
1.40466916700000017e-02  0.00000000000000000e+00  0.00000000000000000e+00
1.66845962450000024e-02  0.00000000000000000e+00  0.00000000000000000e+00
1.93491693749999957e-02  0.00000000000000000e+00  0.00000000000000000e+00
2.20406806649999960e-02  0.00000000000000000e+00  0.00000000000000000e+00
2.47594024549999993e-02  0.00000000000000000e+00  0.00000000000000000e+00
2.75056098449999974e-02  0.00000000000000000e+00  0.00000000000000000e+00
3.02795806999999993e-02  0.00000000000000000e+00  0.00000000000000000e+00
3.30815956999999938e-02  0.00000000000000000e+00  0.00000000000000000e+00
3.59119383700000003e-02  0.00000000000000000e+00  0.00000000000000000e+00
3.87708950949999936e-02  0.00000000000000000e+00  0.00000000000000000e+00
4.16587551549999976e-02  0.00000000000000000e+00  0.00000000000000000e+00
4.45758107500000000e-02  0.00000000000000000e+00  0.00000000000000000e+00
4.75223570449999980e-02  0.00000000000000000e+00  0.00000000000000000e+00
5.04986921849999923e-02  0.00000000000000000e+00  0.00000000000000000e+00
5.35051173199999966e-02  0.00000000000000000e+00  0.00000000000000000e+00
5.65419366599999931e-02  0.00000000000000000e+00  0.00000000000000000e+00
5.96094574799999957e-02  0.00000000000000000e+00  0.00000000000000000e+00
6.27079901650000049e-02  0.00000000000000000e+00  0.00000000000000000e+00
6.58378482349999822e-02  0.00000000000000000e+00  0.00000000000000000e+00
6.89993483800000057e-02  0.00000000000000000e+00  0.00000000000000000e+00
7.21928105049999963e-02  0.00000000000000000e+00  0.00000000000000000e+00
7.54185577250000017e-02  0.00000000000000000e+00  0.00000000000000000e+00
7.86769164349999939e-02  0.00000000000000000e+00  0.00000000000000000e+00
8.19682163399999969e-02  0.00000000000000000e+00  0.00000000000000000e+00
8.52927904600000036e-02  0.00000000000000000e+00  0.00000000000000000e+00
8.86509751850000083e-02  0.00000000000000000e+00  0.00000000000000000e+00
9.20431103099999814e-02  0.00000000000000000e+00  0.00000000000000000e+00
9.54695390700000118e-02  0.00000000000000000e+00  0.00000000000000000e+00
9.89306081899999773e-02  0.00000000000000000e+00  0.00000000000000000e+00
1.02426667799999996e-01  0.00000000000000000e+00  0.00000000000000000e+00
1.05958071700000003e-01  0.00000000000000000e+00  0.00000000000000000e+00
1.09525177249999980e-01  0.00000000000000000e+00  0.00000000000000000e+00
1.13128345299999974e-01  0.00000000000000000e+00  0.00000000000000000e+00
1.16767940499999986e-01  0.00000000000000000e+00  0.00000000000000000e+00
1.20444331099999996e-01  0.00000000000000000e+00  0.00000000000000000e+00
1.24157889049999998e-01  0.00000000000000000e+00  0.00000000000000000e+00
1.27908990150000013e-01  0.00000000000000000e+00  0.00000000000000000e+00
1.31698013949999998e-01  0.00000000000000000e+00  0.00000000000000000e+00
1.35525343800000003e-01  0.00000000000000000e+00  0.00000000000000000e+00
1.39391366999999988e-01  0.00000000000000000e+00  0.00000000000000000e+00
1.43296474750000014e-01  0.00000000000000000e+00  0.00000000000000000e+00
1.47241062149999991e-01  0.00000000000000000e+00  0.00000000000000000e+00
1.51225528299999995e-01  0.00000000000000000e+00  0.00000000000000000e+00
1.55250276399999998e-01  0.00000000000000000e+00  0.00000000000000000e+00
1.59315713750000004e-01  0.00000000000000000e+00  0.00000000000000000e+00
1.63422251650000017e-01  0.00000000000000000e+00  0.00000000000000000e+00
1.67570305599999969e-01  0.00000000000000000e+00  0.00000000000000000e+00
1.71760295299999977e-01  0.00000000000000000e+00  0.00000000000000000e+00
1.75992644749999982e-01  0.00000000000000000e+00  0.00000000000000000e+00
1.80267782200000004e-01  0.00000000000000000e+00  0.00000000000000000e+00
1.84586140200000026e-01  0.00000000000000000e+00  0.00000000000000000e+00
1.88948155750000013e-01  0.00000000000000000e+00  0.00000000000000000e+00
1.93354270150000035e-01  0.00000000000000000e+00  0.00000000000000000e+00
1.97804929249999956e-01  0.00000000000000000e+00  0.00000000000000000e+00
2.02300583449999988e-01  0.00000000000000000e+00  0.00000000000000000e+00
2.06841687549999986e-01  0.00000000000000000e+00  0.00000000000000000e+00
2.11428701050000001e-01  0.00000000000000000e+00  0.00000000000000000e+00
2.16062088149999998e-01  0.00000000000000000e+00  0.00000000000000000e+00
2.20742317599999960e-01  0.00000000000000000e+00  0.00000000000000000e+00
2.25469862999999965e-01  0.00000000000000000e+00  0.00000000000000000e+00
2.30245202699999985e-01  0.00000000000000000e+00  0.00000000000000000e+00
2.35068819850000027e-01  0.00000000000000000e+00  0.00000000000000000e+00
2.39941202549999982e-01  0.00000000000000000e+00  0.00000000000000000e+00
2.44862843849999984e-01  0.00000000000000000e+00  0.00000000000000000e+00
2.49834241749999963e-01  0.00000000000000000e+00  0.00000000000000000e+00
2.54855899199999958e-01  0.00000000000000000e+00  0.00000000000000000e+00
2.59928324299999958e-01  0.00000000000000000e+00  0.00000000000000000e+00
2.65052030350000023e-01  0.00000000000000000e+00  0.00000000000000000e+00
2.70227535800000085e-01  0.00000000000000000e+00  0.00000000000000000e+00
2.75455364299999894e-01  0.00000000000000000e+00  0.00000000000000000e+00
2.80736044849999977e-01  0.00000000000000000e+00  0.00000000000000000e+00
2.86070111749999967e-01  0.00000000000000000e+00  0.00000000000000000e+00
2.91458104699999998e-01  0.00000000000000000e+00  0.00000000000000000e+00
2.96900568949999943e-01  0.00000000000000000e+00  0.00000000000000000e+00
3.02398055150000011e-01  0.00000000000000000e+00  0.00000000000000000e+00
3.07951119499999981e-01  0.00000000000000000e+00  0.00000000000000000e+00
3.13560323949999997e-01  0.00000000000000000e+00  0.00000000000000000e+00
3.19226236050000001e-01  0.00000000000000000e+00  0.00000000000000000e+00
3.24949429100000020e-01  0.00000000000000000e+00  0.00000000000000000e+00
3.30730482200000009e-01  0.00000000000000000e+00  0.00000000000000000e+00
3.36569980300000016e-01  0.00000000000000000e+00  0.00000000000000000e+00
3.42468514249999967e-01  0.00000000000000000e+00  0.00000000000000000e+00
3.48426680900000008e-01  0.00000000000000000e+00  0.00000000000000000e+00
3.54445083150000007e-01  0.00000000000000000e+00  0.00000000000000000e+00
3.60524329899999996e-01  0.00000000000000000e+00  0.00000000000000000e+00
3.66665036300000025e-01  0.00000000000000000e+00  0.00000000000000000e+00
3.72867823699999934e-01  0.00000000000000000e+00  0.00000000000000000e+00
3.79133319699999916e-01  0.00000000000000000e+00  0.00000000000000000e+00
3.85462158300000024e-01  0.00000000000000000e+00  0.00000000000000000e+00
3.91854979899999956e-01  0.00000000000000000e+00  0.00000000000000000e+00
3.98312431300000047e-01  0.00000000000000000e+00  0.00000000000000000e+00
4.04835165899999960e-01  0.00000000000000000e+00  0.00000000000000000e+00
4.11423843699999903e-01  0.00000000000000000e+00  0.00000000000000000e+00
4.18079131399999970e-01  0.00000000000000000e+00  0.00000000000000000e+00
4.24801702399999981e-01  0.00000000000000000e+00  0.00000000000000000e+00
4.31592236849999977e-01  0.00000000000000000e+00  0.00000000000000000e+00
4.38451421899999916e-01  0.00000000000000000e+00  0.00000000000000000e+00
4.45379951599999935e-01  0.00000000000000000e+00  0.00000000000000000e+00
4.52378527000000086e-01  0.00000000000000000e+00  0.00000000000000000e+00
4.59447856250000009e-01  0.00000000000000000e+00  0.00000000000000000e+00
4.66588654649999934e-01  0.00000000000000000e+00  0.00000000000000000e+00
4.73801644749999917e-01  0.00000000000000000e+00  0.00000000000000000e+00
4.81087556350000056e-01  0.00000000000000000e+00  0.00000000000000000e+00
4.88447126649999841e-01  0.00000000000000000e+00  0.00000000000000000e+00
4.95881100349999937e-01  0.00000000000000000e+00  0.00000000000000000e+00
5.03390229650000021e-01  0.00000000000000000e+00  0.00000000000000000e+00
5.10975274400000012e-01  0.00000000000000000e+00  0.00000000000000000e+00
5.18637002049999962e-01  0.00000000000000000e+00  0.00000000000000000e+00
5.26376187800000062e-01  0.00000000000000000e+00  0.00000000000000000e+00
5.34193614799999938e-01  0.00000000000000000e+00  0.00000000000000000e+00
5.42090074000000088e-01  0.00000000000000000e+00  0.00000000000000000e+00
5.50066364399999896e-01  0.00000000000000000e+00  0.00000000000000000e+00
5.58123293149999977e-01  0.00000000000000000e+00  0.00000000000000000e+00
5.66261675399999942e-01  0.00000000000000000e+00  0.00000000000000000e+00
5.74482334649999982e-01  0.00000000000000000e+00  0.00000000000000000e+00
5.82786102699999975e-01  0.00000000000000000e+00  0.00000000000000000e+00
5.91173819749999940e-01  0.00000000000000000e+00  0.00000000000000000e+00
5.99646334549999938e-01  0.00000000000000000e+00  0.00000000000000000e+00
6.08204504300000059e-01  0.00000000000000000e+00  0.00000000000000000e+00
6.16849194999999906e-01  0.00000000000000000e+00  0.00000000000000000e+00
6.25581281350000018e-01  0.00000000000000000e+00  0.00000000000000000e+00
6.34401646899999894e-01  0.00000000000000000e+00  0.00000000000000000e+00
6.43311184150000104e-01  0.00000000000000000e+00  0.00000000000000000e+00
6.52310794550000073e-01  0.00000000000000000e+00  0.00000000000000000e+00
6.61401388750000097e-01  0.00000000000000000e+00  0.00000000000000000e+00
6.70583886600000012e-01  0.00000000000000000e+00  0.00000000000000000e+00
6.79859217199999866e-01  0.00000000000000000e+00  0.00000000000000000e+00
6.89228318999999923e-01  0.00000000000000000e+00  0.00000000000000000e+00
6.98692140099999914e-01  0.00000000000000000e+00  0.00000000000000000e+00
7.08251638049999910e-01  0.00000000000000000e+00  0.00000000000000000e+00
7.17907780099999893e-01  0.00000000000000000e+00  0.00000000000000000e+00
7.27661543349999995e-01  0.00000000000000000e+00  0.00000000000000000e+00
7.37513914700000051e-01  0.00000000000000000e+00  0.00000000000000000e+00
7.47465891050000053e-01  0.00000000000000000e+00  0.00000000000000000e+00
7.57518479349999940e-01  0.00000000000000000e+00  0.00000000000000000e+00
7.67672696800000054e-01  0.00000000000000000e+00  0.00000000000000000e+00
7.77929570850000141e-01  0.00000000000000000e+00  0.00000000000000000e+00
7.88290139300000248e-01  0.00000000000000000e+00  0.00000000000000000e+00
7.98755450499999964e-01  0.00000000000000000e+00  0.00000000000000000e+00
8.09326563399999976e-01  0.00000000000000000e+00  0.00000000000000000e+00
8.20004547549999963e-01  0.00000000000000000e+00  0.00000000000000000e+00
8.30790483449999839e-01  0.00000000000000000e+00  0.00000000000000000e+00
8.41685462449999977e-01  0.00000000000000000e+00  0.00000000000000000e+00
8.52690586949999996e-01  0.00000000000000000e+00  0.00000000000000000e+00
8.63806970499999882e-01  0.00000000000000000e+00  0.00000000000000000e+00
8.75035737849999884e-01  0.00000000000000000e+00  0.00000000000000000e+00
8.86378025249999979e-01  0.00000000000000000e+00  0.00000000000000000e+00
8.97834980349999978e-01  0.00000000000000000e+00  0.00000000000000000e+00
9.09407762349999982e-01  0.00000000000000000e+00  0.00000000000000000e+00
9.21097542249999846e-01  0.00000000000000000e+00  0.00000000000000000e+00
9.32905502949999965e-01  0.00000000000000000e+00  0.00000000000000000e+00
9.44832839149999937e-01  0.00000000000000000e+00  0.00000000000000000e+00
9.56880757700000029e-01  0.00000000000000000e+00  0.00000000000000000e+00
9.69050477650000075e-01  0.00000000000000000e+00  0.00000000000000000e+00
9.81343230399999933e-01  0.00000000000000000e+00  0.00000000000000000e+00
9.93760259849999938e-01  0.00000000000000000e+00  0.00000000000000000e+00

CELLS 0 0


CELL_TYPES 0


POINT_DATA 161

SCALARS Rank unsigned_int
LOOKUP_TABLE default
0 0 0 0 0 0 0 0 0 0 0 0 0 0 0 0 0 0 0 0 0 0 0 0 0 0 0 0 0 0 0 0 0 0 0 0 0 0 0 0 0 0 0 0 0 0 0 0 0 0 0 0 0 0 0 0 0 0 0 0 0 0 0 0 0 0 0 0 0 0 0 0 0 0 0 0 0 0 0 0 0 0 0 0 0 0 0 0 0 0 0 0 0 0 0 0 0 0 0 0 0 0 0 0 0 0 0 0 0 0 0 0 0 0 0 0 0 0 0 0 0 0 0 0 0 0 0 0 0 0 0 0 0 0 0 0 0 0 0 0 0 0 0 0 0 0 0 0 0 0 0 0 0 0 0 0 0 0 0 0 0 

SCALARS Temperature double
LOOKUP_TABLE default
3.02278087623473482e+02
3.02395892664965004e+02
3.02495626940535772e+02
3.02583136546761239e+02
3.02661328140077842e+02
3.02731799618631442e+02
3.02795461742504585e+02
3.02852792754456175e+02
3.02903928780716058e+02
3.02948640414559179e+02
3.02986146599935182e+02
3.03014512448108690e+02
3.03015482057759414e+02
3.03037814538995860e+02
3.03063463636646247e+02
3.03090458080343865e+02
3.03117833249378975e+02
3.03145023208904661e+02
3.03171629658485472e+02
3.03197305030742598e+02
3.03221650635689855e+02
3.03244030181155722e+02
3.03260150832914746e+02
3.03281245714522186e+02
3.03303113145769089e+02
3.03325195737840261e+02
3.03347199068647853e+02
3.03368929568185365e+02
3.03390231770728235e+02
3.03410951476938749e+02
3.03430893135413896e+02
3.03449722947175530e+02
3.03465300303436493e+02
3.03483297113406650e+02
3.03501614631244536e+02
3.03519947206359859e+02
3.03538130192658684e+02
3.03556048818089607e+02
3.03573601555626112e+02
3.03590671888294935e+02
3.03607075158985197e+02
3.03621774689876077e+02
3.03637486993753839e+02
3.03653194371303812e+02
3.03668722008388045e+02
3.03683961177902802e+02
3.03698816099702469e+02
3.03713170559205707e+02
3.03726825728729750e+02
3.03738637390079532e+02
3.03751681995969534e+02
3.03764838524387301e+02
3.03777922268270856e+02
3.03790831030660854e+02
3.03803484635444306e+02
3.03815788520500689e+02
3.03827358080567933e+02
3.03839150072667849e+02
3.03850791045265453e+02
3.03862199230899421e+02
3.03873314490761231e+02
3.03884069779366939e+02
3.03894352908751387e+02
3.03903562432963327e+02
3.03913336694179179e+02
3.03923089500652623e+02
3.03932721844582602e+02
3.03942184453710752e+02
3.03951445485075567e+02
3.03960478354722113e+02
3.03969229782921502e+02
3.03977790612867977e+02
3.03986110953586319e+02
3.03994170152703077e+02
3.04001945612531301e+02
3.04009399743105064e+02
3.04016346854017968e+02
3.04023285220614582e+02
3.04030029487634010e+02
3.04036534003549036e+02
3.04042749148601104e+02
3.04048449035234910e+02
3.04054260539027780e+02
3.04059969115195486e+02
3.04065543855188309e+02
3.04070979085628039e+02
3.04076288758719784e+02
3.04081590982498767e+02
3.04086535931377057e+02
3.04091242667444135e+02
3.04095732288201930e+02
3.04100015165358286e+02
3.04104097102456649e+02
3.04107986054616617e+02
3.04111685090414596e+02
3.04115196657369268e+02
3.04118518809137470e+02
3.04121608135627639e+02
3.04124623883364279e+02
3.04127531016429600e+02
3.04130350524564562e+02
3.04133221112815534e+02
3.04135749650220987e+02
3.04138075079337113e+02
3.04140227237992804e+02
3.04142227475132700e+02
3.04144133343524175e+02
3.04145800358443921e+02
3.04147277025398239e+02
3.04148561861531164e+02
3.04149582276143462e+02
3.04150574678882776e+02
3.04151466172706535e+02
3.04152251034424239e+02
3.04152961562571477e+02
3.04153480446163826e+02
3.04153839464106909e+02
3.04154036274454995e+02
3.04154045739451817e+02
3.04153923486582414e+02
3.04153637043675303e+02
3.04153162664833133e+02
3.04152426866609517e+02
3.04151593107680071e+02
3.04150586193325182e+02
3.04149387934321965e+02
3.04147919935466973e+02
3.04146154458072431e+02
3.04144027802393452e+02
3.04141326103282040e+02
3.04138496819146837e+02
3.04135275576247409e+02
3.04131263830176579e+02
3.04127377576176627e+02
3.04123250468113838e+02
3.04118800905689056e+02
3.04114179914704039e+02
3.04108520079874836e+02
3.04101924202966927e+02
3.04094059268960336e+02
3.04085624313702112e+02
3.04076227830903520e+02
3.04065621416545412e+02
3.04053877010185658e+02
3.04040795254795910e+02
3.04026434225491414e+02
3.04009954270845299e+02
3.03991607499218162e+02
3.03972936989105676e+02
3.03947633349272166e+02
3.03915445777200773e+02
3.03882185851860640e+02
3.03846570175784393e+02
3.03812636012248959e+02
3.03766540575871545e+02
3.03714244482991205e+02
3.03669233061018929e+02
3.03594657703011819e+02
3.03534220348770930e+02
3.03361863593009332e+02
3.03087520262736291e+02

SCALARS Heat-Flux double
LOOKUP_TABLE default
0.00000000000000000e+00
0.00000000000000000e+00
0.00000000000000000e+00
0.00000000000000000e+00
0.00000000000000000e+00
0.00000000000000000e+00
0.00000000000000000e+00
0.00000000000000000e+00
0.00000000000000000e+00
0.00000000000000000e+00
0.00000000000000000e+00
0.00000000000000000e+00
0.00000000000000000e+00
0.00000000000000000e+00
0.00000000000000000e+00
0.00000000000000000e+00
0.00000000000000000e+00
0.00000000000000000e+00
0.00000000000000000e+00
0.00000000000000000e+00
0.00000000000000000e+00
0.00000000000000000e+00
0.00000000000000000e+00
0.00000000000000000e+00
0.00000000000000000e+00
0.00000000000000000e+00
0.00000000000000000e+00
0.00000000000000000e+00
0.00000000000000000e+00
0.00000000000000000e+00
0.00000000000000000e+00
0.00000000000000000e+00
0.00000000000000000e+00
0.00000000000000000e+00
0.00000000000000000e+00
0.00000000000000000e+00
0.00000000000000000e+00
0.00000000000000000e+00
0.00000000000000000e+00
0.00000000000000000e+00
0.00000000000000000e+00
0.00000000000000000e+00
0.00000000000000000e+00
0.00000000000000000e+00
0.00000000000000000e+00
0.00000000000000000e+00
0.00000000000000000e+00
0.00000000000000000e+00
0.00000000000000000e+00
0.00000000000000000e+00
0.00000000000000000e+00
0.00000000000000000e+00
0.00000000000000000e+00
0.00000000000000000e+00
0.00000000000000000e+00
0.00000000000000000e+00
0.00000000000000000e+00
0.00000000000000000e+00
0.00000000000000000e+00
0.00000000000000000e+00
0.00000000000000000e+00
0.00000000000000000e+00
0.00000000000000000e+00
0.00000000000000000e+00
0.00000000000000000e+00
0.00000000000000000e+00
0.00000000000000000e+00
0.00000000000000000e+00
0.00000000000000000e+00
0.00000000000000000e+00
0.00000000000000000e+00
0.00000000000000000e+00
0.00000000000000000e+00
0.00000000000000000e+00
0.00000000000000000e+00
0.00000000000000000e+00
0.00000000000000000e+00
0.00000000000000000e+00
0.00000000000000000e+00
0.00000000000000000e+00
0.00000000000000000e+00
0.00000000000000000e+00
0.00000000000000000e+00
0.00000000000000000e+00
0.00000000000000000e+00
0.00000000000000000e+00
0.00000000000000000e+00
0.00000000000000000e+00
0.00000000000000000e+00
0.00000000000000000e+00
0.00000000000000000e+00
0.00000000000000000e+00
0.00000000000000000e+00
0.00000000000000000e+00
0.00000000000000000e+00
0.00000000000000000e+00
0.00000000000000000e+00
0.00000000000000000e+00
0.00000000000000000e+00
0.00000000000000000e+00
0.00000000000000000e+00
0.00000000000000000e+00
0.00000000000000000e+00
0.00000000000000000e+00
0.00000000000000000e+00
0.00000000000000000e+00
0.00000000000000000e+00
0.00000000000000000e+00
0.00000000000000000e+00
0.00000000000000000e+00
0.00000000000000000e+00
0.00000000000000000e+00
0.00000000000000000e+00
0.00000000000000000e+00
0.00000000000000000e+00
0.00000000000000000e+00
0.00000000000000000e+00
0.00000000000000000e+00
0.00000000000000000e+00
0.00000000000000000e+00
0.00000000000000000e+00
0.00000000000000000e+00
0.00000000000000000e+00
0.00000000000000000e+00
0.00000000000000000e+00
0.00000000000000000e+00
0.00000000000000000e+00
0.00000000000000000e+00
0.00000000000000000e+00
0.00000000000000000e+00
0.00000000000000000e+00
0.00000000000000000e+00
0.00000000000000000e+00
0.00000000000000000e+00
0.00000000000000000e+00
0.00000000000000000e+00
0.00000000000000000e+00
0.00000000000000000e+00
0.00000000000000000e+00
0.00000000000000000e+00
0.00000000000000000e+00
0.00000000000000000e+00
0.00000000000000000e+00
0.00000000000000000e+00
0.00000000000000000e+00
0.00000000000000000e+00
0.00000000000000000e+00
0.00000000000000000e+00
0.00000000000000000e+00
0.00000000000000000e+00
0.00000000000000000e+00
0.00000000000000000e+00
0.00000000000000000e+00
0.00000000000000000e+00
0.00000000000000000e+00
0.00000000000000000e+00
0.00000000000000000e+00
0.00000000000000000e+00
0.00000000000000000e+00
0.00000000000000000e+00
0.00000000000000000e+00

