# vtk DataFile Version 2.0

ASCII

DATASET UNSTRUCTURED_GRID

POINTS 161 double 

1.24794802699999970e-03  0.00000000000000000e+00  0.00000000000000000e+00
3.75646052150000040e-03  0.00000000000000000e+00  0.00000000000000000e+00
6.29033344650000142e-03  0.00000000000000000e+00  0.00000000000000000e+00
8.84982319200000069e-03  0.00000000000000000e+00  0.00000000000000000e+00
1.14351887349999973e-02  0.00000000000000000e+00  0.00000000000000000e+00
1.40466916700000017e-02  0.00000000000000000e+00  0.00000000000000000e+00
1.66845962450000024e-02  0.00000000000000000e+00  0.00000000000000000e+00
1.93491693749999957e-02  0.00000000000000000e+00  0.00000000000000000e+00
2.20406806649999960e-02  0.00000000000000000e+00  0.00000000000000000e+00
2.47594024549999993e-02  0.00000000000000000e+00  0.00000000000000000e+00
2.75056098449999974e-02  0.00000000000000000e+00  0.00000000000000000e+00
3.02795806999999993e-02  0.00000000000000000e+00  0.00000000000000000e+00
3.30815956999999938e-02  0.00000000000000000e+00  0.00000000000000000e+00
3.59119383700000003e-02  0.00000000000000000e+00  0.00000000000000000e+00
3.87708950949999936e-02  0.00000000000000000e+00  0.00000000000000000e+00
4.16587551549999976e-02  0.00000000000000000e+00  0.00000000000000000e+00
4.45758107500000000e-02  0.00000000000000000e+00  0.00000000000000000e+00
4.75223570449999980e-02  0.00000000000000000e+00  0.00000000000000000e+00
5.04986921849999923e-02  0.00000000000000000e+00  0.00000000000000000e+00
5.35051173199999966e-02  0.00000000000000000e+00  0.00000000000000000e+00
5.65419366599999931e-02  0.00000000000000000e+00  0.00000000000000000e+00
5.96094574799999957e-02  0.00000000000000000e+00  0.00000000000000000e+00
6.27079901650000049e-02  0.00000000000000000e+00  0.00000000000000000e+00
6.58378482349999822e-02  0.00000000000000000e+00  0.00000000000000000e+00
6.89993483800000057e-02  0.00000000000000000e+00  0.00000000000000000e+00
7.21928105049999963e-02  0.00000000000000000e+00  0.00000000000000000e+00
7.54185577250000017e-02  0.00000000000000000e+00  0.00000000000000000e+00
7.86769164349999939e-02  0.00000000000000000e+00  0.00000000000000000e+00
8.19682163399999969e-02  0.00000000000000000e+00  0.00000000000000000e+00
8.52927904600000036e-02  0.00000000000000000e+00  0.00000000000000000e+00
8.86509751850000083e-02  0.00000000000000000e+00  0.00000000000000000e+00
9.20431103099999814e-02  0.00000000000000000e+00  0.00000000000000000e+00
9.54695390700000118e-02  0.00000000000000000e+00  0.00000000000000000e+00
9.89306081899999773e-02  0.00000000000000000e+00  0.00000000000000000e+00
1.02426667799999996e-01  0.00000000000000000e+00  0.00000000000000000e+00
1.05958071700000003e-01  0.00000000000000000e+00  0.00000000000000000e+00
1.09525177249999980e-01  0.00000000000000000e+00  0.00000000000000000e+00
1.13128345299999974e-01  0.00000000000000000e+00  0.00000000000000000e+00
1.16767940499999986e-01  0.00000000000000000e+00  0.00000000000000000e+00
1.20444331099999996e-01  0.00000000000000000e+00  0.00000000000000000e+00
1.24157889049999998e-01  0.00000000000000000e+00  0.00000000000000000e+00
1.27908990150000013e-01  0.00000000000000000e+00  0.00000000000000000e+00
1.31698013949999998e-01  0.00000000000000000e+00  0.00000000000000000e+00
1.35525343800000003e-01  0.00000000000000000e+00  0.00000000000000000e+00
1.39391366999999988e-01  0.00000000000000000e+00  0.00000000000000000e+00
1.43296474750000014e-01  0.00000000000000000e+00  0.00000000000000000e+00
1.47241062149999991e-01  0.00000000000000000e+00  0.00000000000000000e+00
1.51225528299999995e-01  0.00000000000000000e+00  0.00000000000000000e+00
1.55250276399999998e-01  0.00000000000000000e+00  0.00000000000000000e+00
1.59315713750000004e-01  0.00000000000000000e+00  0.00000000000000000e+00
1.63422251650000017e-01  0.00000000000000000e+00  0.00000000000000000e+00
1.67570305599999969e-01  0.00000000000000000e+00  0.00000000000000000e+00
1.71760295299999977e-01  0.00000000000000000e+00  0.00000000000000000e+00
1.75992644749999982e-01  0.00000000000000000e+00  0.00000000000000000e+00
1.80267782200000004e-01  0.00000000000000000e+00  0.00000000000000000e+00
1.84586140200000026e-01  0.00000000000000000e+00  0.00000000000000000e+00
1.88948155750000013e-01  0.00000000000000000e+00  0.00000000000000000e+00
1.93354270150000035e-01  0.00000000000000000e+00  0.00000000000000000e+00
1.97804929249999956e-01  0.00000000000000000e+00  0.00000000000000000e+00
2.02300583449999988e-01  0.00000000000000000e+00  0.00000000000000000e+00
2.06841687549999986e-01  0.00000000000000000e+00  0.00000000000000000e+00
2.11428701050000001e-01  0.00000000000000000e+00  0.00000000000000000e+00
2.16062088149999998e-01  0.00000000000000000e+00  0.00000000000000000e+00
2.20742317599999960e-01  0.00000000000000000e+00  0.00000000000000000e+00
2.25469862999999965e-01  0.00000000000000000e+00  0.00000000000000000e+00
2.30245202699999985e-01  0.00000000000000000e+00  0.00000000000000000e+00
2.35068819850000027e-01  0.00000000000000000e+00  0.00000000000000000e+00
2.39941202549999982e-01  0.00000000000000000e+00  0.00000000000000000e+00
2.44862843849999984e-01  0.00000000000000000e+00  0.00000000000000000e+00
2.49834241749999963e-01  0.00000000000000000e+00  0.00000000000000000e+00
2.54855899199999958e-01  0.00000000000000000e+00  0.00000000000000000e+00
2.59928324299999958e-01  0.00000000000000000e+00  0.00000000000000000e+00
2.65052030350000023e-01  0.00000000000000000e+00  0.00000000000000000e+00
2.70227535800000085e-01  0.00000000000000000e+00  0.00000000000000000e+00
2.75455364299999894e-01  0.00000000000000000e+00  0.00000000000000000e+00
2.80736044849999977e-01  0.00000000000000000e+00  0.00000000000000000e+00
2.86070111749999967e-01  0.00000000000000000e+00  0.00000000000000000e+00
2.91458104699999998e-01  0.00000000000000000e+00  0.00000000000000000e+00
2.96900568949999943e-01  0.00000000000000000e+00  0.00000000000000000e+00
3.02398055150000011e-01  0.00000000000000000e+00  0.00000000000000000e+00
3.07951119499999981e-01  0.00000000000000000e+00  0.00000000000000000e+00
3.13560323949999997e-01  0.00000000000000000e+00  0.00000000000000000e+00
3.19226236050000001e-01  0.00000000000000000e+00  0.00000000000000000e+00
3.24949429100000020e-01  0.00000000000000000e+00  0.00000000000000000e+00
3.30730482200000009e-01  0.00000000000000000e+00  0.00000000000000000e+00
3.36569980300000016e-01  0.00000000000000000e+00  0.00000000000000000e+00
3.42468514249999967e-01  0.00000000000000000e+00  0.00000000000000000e+00
3.48426680900000008e-01  0.00000000000000000e+00  0.00000000000000000e+00
3.54445083150000007e-01  0.00000000000000000e+00  0.00000000000000000e+00
3.60524329899999996e-01  0.00000000000000000e+00  0.00000000000000000e+00
3.66665036300000025e-01  0.00000000000000000e+00  0.00000000000000000e+00
3.72867823699999934e-01  0.00000000000000000e+00  0.00000000000000000e+00
3.79133319699999916e-01  0.00000000000000000e+00  0.00000000000000000e+00
3.85462158300000024e-01  0.00000000000000000e+00  0.00000000000000000e+00
3.91854979899999956e-01  0.00000000000000000e+00  0.00000000000000000e+00
3.98312431300000047e-01  0.00000000000000000e+00  0.00000000000000000e+00
4.04835165899999960e-01  0.00000000000000000e+00  0.00000000000000000e+00
4.11423843699999903e-01  0.00000000000000000e+00  0.00000000000000000e+00
4.18079131399999970e-01  0.00000000000000000e+00  0.00000000000000000e+00
4.24801702399999981e-01  0.00000000000000000e+00  0.00000000000000000e+00
4.31592236849999977e-01  0.00000000000000000e+00  0.00000000000000000e+00
4.38451421899999916e-01  0.00000000000000000e+00  0.00000000000000000e+00
4.45379951599999935e-01  0.00000000000000000e+00  0.00000000000000000e+00
4.52378527000000086e-01  0.00000000000000000e+00  0.00000000000000000e+00
4.59447856250000009e-01  0.00000000000000000e+00  0.00000000000000000e+00
4.66588654649999934e-01  0.00000000000000000e+00  0.00000000000000000e+00
4.73801644749999917e-01  0.00000000000000000e+00  0.00000000000000000e+00
4.81087556350000056e-01  0.00000000000000000e+00  0.00000000000000000e+00
4.88447126649999841e-01  0.00000000000000000e+00  0.00000000000000000e+00
4.95881100349999937e-01  0.00000000000000000e+00  0.00000000000000000e+00
5.03390229650000021e-01  0.00000000000000000e+00  0.00000000000000000e+00
5.10975274400000012e-01  0.00000000000000000e+00  0.00000000000000000e+00
5.18637002049999962e-01  0.00000000000000000e+00  0.00000000000000000e+00
5.26376187800000062e-01  0.00000000000000000e+00  0.00000000000000000e+00
5.34193614799999938e-01  0.00000000000000000e+00  0.00000000000000000e+00
5.42090074000000088e-01  0.00000000000000000e+00  0.00000000000000000e+00
5.50066364399999896e-01  0.00000000000000000e+00  0.00000000000000000e+00
5.58123293149999977e-01  0.00000000000000000e+00  0.00000000000000000e+00
5.66261675399999942e-01  0.00000000000000000e+00  0.00000000000000000e+00
5.74482334649999982e-01  0.00000000000000000e+00  0.00000000000000000e+00
5.82786102699999975e-01  0.00000000000000000e+00  0.00000000000000000e+00
5.91173819749999940e-01  0.00000000000000000e+00  0.00000000000000000e+00
5.99646334549999938e-01  0.00000000000000000e+00  0.00000000000000000e+00
6.08204504300000059e-01  0.00000000000000000e+00  0.00000000000000000e+00
6.16849194999999906e-01  0.00000000000000000e+00  0.00000000000000000e+00
6.25581281350000018e-01  0.00000000000000000e+00  0.00000000000000000e+00
6.34401646899999894e-01  0.00000000000000000e+00  0.00000000000000000e+00
6.43311184150000104e-01  0.00000000000000000e+00  0.00000000000000000e+00
6.52310794550000073e-01  0.00000000000000000e+00  0.00000000000000000e+00
6.61401388750000097e-01  0.00000000000000000e+00  0.00000000000000000e+00
6.70583886600000012e-01  0.00000000000000000e+00  0.00000000000000000e+00
6.79859217199999866e-01  0.00000000000000000e+00  0.00000000000000000e+00
6.89228318999999923e-01  0.00000000000000000e+00  0.00000000000000000e+00
6.98692140099999914e-01  0.00000000000000000e+00  0.00000000000000000e+00
7.08251638049999910e-01  0.00000000000000000e+00  0.00000000000000000e+00
7.17907780099999893e-01  0.00000000000000000e+00  0.00000000000000000e+00
7.27661543349999995e-01  0.00000000000000000e+00  0.00000000000000000e+00
7.37513914700000051e-01  0.00000000000000000e+00  0.00000000000000000e+00
7.47465891050000053e-01  0.00000000000000000e+00  0.00000000000000000e+00
7.57518479349999940e-01  0.00000000000000000e+00  0.00000000000000000e+00
7.67672696800000054e-01  0.00000000000000000e+00  0.00000000000000000e+00
7.77929570850000141e-01  0.00000000000000000e+00  0.00000000000000000e+00
7.88290139300000248e-01  0.00000000000000000e+00  0.00000000000000000e+00
7.98755450499999964e-01  0.00000000000000000e+00  0.00000000000000000e+00
8.09326563399999976e-01  0.00000000000000000e+00  0.00000000000000000e+00
8.20004547549999963e-01  0.00000000000000000e+00  0.00000000000000000e+00
8.30790483449999839e-01  0.00000000000000000e+00  0.00000000000000000e+00
8.41685462449999977e-01  0.00000000000000000e+00  0.00000000000000000e+00
8.52690586949999996e-01  0.00000000000000000e+00  0.00000000000000000e+00
8.63806970499999882e-01  0.00000000000000000e+00  0.00000000000000000e+00
8.75035737849999884e-01  0.00000000000000000e+00  0.00000000000000000e+00
8.86378025249999979e-01  0.00000000000000000e+00  0.00000000000000000e+00
8.97834980349999978e-01  0.00000000000000000e+00  0.00000000000000000e+00
9.09407762349999982e-01  0.00000000000000000e+00  0.00000000000000000e+00
9.21097542249999846e-01  0.00000000000000000e+00  0.00000000000000000e+00
9.32905502949999965e-01  0.00000000000000000e+00  0.00000000000000000e+00
9.44832839149999937e-01  0.00000000000000000e+00  0.00000000000000000e+00
9.56880757700000029e-01  0.00000000000000000e+00  0.00000000000000000e+00
9.69050477650000075e-01  0.00000000000000000e+00  0.00000000000000000e+00
9.81343230399999933e-01  0.00000000000000000e+00  0.00000000000000000e+00
9.93760259849999938e-01  0.00000000000000000e+00  0.00000000000000000e+00

CELLS 0 0


CELL_TYPES 0


POINT_DATA 161

SCALARS Rank unsigned_int
LOOKUP_TABLE default
0 0 0 0 0 0 0 0 0 0 0 0 0 0 0 0 0 0 0 0 0 0 0 0 0 0 0 0 0 0 0 0 0 0 0 0 0 0 0 0 0 0 0 0 0 0 0 0 0 0 0 0 0 0 0 0 0 0 0 0 0 0 0 0 0 0 0 0 0 0 0 0 0 0 0 0 0 0 0 0 0 0 0 0 0 0 0 0 0 0 0 0 0 0 0 0 0 0 0 0 0 0 0 0 0 0 0 0 0 0 0 0 0 0 0 0 0 0 0 0 0 0 0 0 0 0 0 0 0 0 0 0 0 0 0 0 0 0 0 0 0 0 0 0 0 0 0 0 0 0 0 0 0 0 0 0 0 0 0 0 0 

SCALARS Temperature double
LOOKUP_TABLE default
3.02357499327656001e+02
3.02481961155423392e+02
3.02585395453078149e+02
3.02674286984219975e+02
3.02751765601174554e+02
3.02819422291988815e+02
3.02877964550632328e+02
3.02927404465593156e+02
3.02966916890639993e+02
3.02994116187173290e+02
3.02985039347402733e+02
3.03003674479990707e+02
3.03026261239011774e+02
3.03050208594262699e+02
3.03074167130608032e+02
3.03097213172470504e+02
3.03118453122787798e+02
3.03136583865076489e+02
3.03142737686816076e+02
3.03160042379346635e+02
3.03179855613856432e+02
3.03201128420382645e+02
3.03223361035838820e+02
3.03246298353293867e+02
3.03269838457998162e+02
3.03294048087485749e+02
3.03320415586093020e+02
3.03344564493324071e+02
3.03367995750494799e+02
3.03390850653433631e+02
3.03413172985898996e+02
3.03434967489257190e+02
3.03456216836344026e+02
3.03476881536268536e+02
3.03496776861026262e+02
3.03516298773556571e+02
3.03535243872603928e+02
3.03553525181101065e+02
3.03571034213708288e+02
3.03587599889546652e+02
3.03602882586291059e+02
3.03614649840298114e+02
3.03628949338183247e+02
3.03643577473304333e+02
3.03658186341696137e+02
3.03672563087406900e+02
3.03686485457868173e+02
3.03698994728447644e+02
3.03712535938315739e+02
3.03726190058606676e+02
3.03739797519982005e+02
3.03753266513589836e+02
3.03766520495753412e+02
3.03779361233962561e+02
3.03792201479421408e+02
3.03804856067330036e+02
3.03817273238468204e+02
3.03829409180825223e+02
3.03841208094691410e+02
3.03852444932190565e+02
3.03863664661938060e+02
3.03874640512304723e+02
3.03885302371811235e+02
3.03895562271547931e+02
3.03905001133720589e+02
3.03914737602900743e+02
3.03924363964484314e+02
3.03933804398743177e+02
3.03943012424214430e+02
3.03951939027960520e+02
3.03960396392433154e+02
3.03968863398069857e+02
3.03977159240350318e+02
3.03985242786608353e+02
3.03993044609337403e+02
3.04000706706157473e+02
3.04008170490586053e+02
3.04015423375867215e+02
3.04022458567435365e+02
3.04029267959785898e+02
3.04035864237051044e+02
3.04042242879781838e+02
3.04048405613039904e+02
3.04054359096076155e+02
3.04060146365126229e+02
3.04065640279739398e+02
3.04070881168843755e+02
3.04075869704692593e+02
3.04080570754616360e+02
3.04085089347670589e+02
3.04089382151421546e+02
3.04093421536518349e+02
3.04097058114179731e+02
3.04100733638524389e+02
3.04104305746933619e+02
3.04107758465932932e+02
3.04111100524226060e+02
3.04114309804075447e+02
3.04117412888547619e+02
3.04120449207813920e+02
3.04123616163480733e+02
3.04126367281978844e+02
3.04128902309142177e+02
3.04131307691070219e+02
3.04133449003880514e+02
3.04135383164665882e+02
3.04137116398629757e+02
3.04138600537760567e+02
3.04140009040602820e+02
3.04141289639735703e+02
3.04142429463287897e+02
3.04143452736208644e+02
3.04144357526267299e+02
3.04145179480631668e+02
3.04145804060764476e+02
3.04146264252507308e+02
3.04146555056221189e+02
3.04146692718853387e+02
3.04146661501797325e+02
3.04146442613767135e+02
3.04145966029255362e+02
3.04145396312211574e+02
3.04144657016700137e+02
3.04143697274348597e+02
3.04142565154104545e+02
3.04141205774652576e+02
3.04139599203447176e+02
3.04137695432228384e+02
3.04135389587005307e+02
3.04132820173458072e+02
3.04129848107230146e+02
3.04126234203071760e+02
3.04122425188913212e+02
3.04118155982401959e+02
3.04113167760334818e+02
3.04107767281372844e+02
3.04101497514540483e+02
3.04094897478888697e+02
3.04087616252159251e+02
3.04079389721152779e+02
3.04070373995210502e+02
3.04060262562292792e+02
3.04049038021496358e+02
3.04036450151772897e+02
3.04022201215205882e+02
3.04006369140000288e+02
3.03988500027369867e+02
3.03969199673147443e+02
3.03949162283582382e+02
3.03925290360832776e+02
3.03901218053828529e+02
3.03866867776019717e+02
3.03824325373716306e+02
3.03771362178529046e+02
3.03712063930511192e+02
3.03637119341389621e+02
3.03575187387315225e+02
3.03542964770599724e+02
3.03470346774608686e+02
3.03442849119847779e+02
3.03197827079255092e+02

SCALARS Heat-Flux double
LOOKUP_TABLE default
0.00000000000000000e+00
0.00000000000000000e+00
0.00000000000000000e+00
0.00000000000000000e+00
0.00000000000000000e+00
0.00000000000000000e+00
0.00000000000000000e+00
0.00000000000000000e+00
0.00000000000000000e+00
0.00000000000000000e+00
0.00000000000000000e+00
0.00000000000000000e+00
0.00000000000000000e+00
0.00000000000000000e+00
0.00000000000000000e+00
0.00000000000000000e+00
0.00000000000000000e+00
0.00000000000000000e+00
0.00000000000000000e+00
0.00000000000000000e+00
0.00000000000000000e+00
0.00000000000000000e+00
0.00000000000000000e+00
0.00000000000000000e+00
0.00000000000000000e+00
0.00000000000000000e+00
0.00000000000000000e+00
0.00000000000000000e+00
0.00000000000000000e+00
0.00000000000000000e+00
0.00000000000000000e+00
0.00000000000000000e+00
0.00000000000000000e+00
0.00000000000000000e+00
0.00000000000000000e+00
0.00000000000000000e+00
0.00000000000000000e+00
0.00000000000000000e+00
0.00000000000000000e+00
0.00000000000000000e+00
0.00000000000000000e+00
0.00000000000000000e+00
0.00000000000000000e+00
0.00000000000000000e+00
0.00000000000000000e+00
0.00000000000000000e+00
0.00000000000000000e+00
0.00000000000000000e+00
0.00000000000000000e+00
0.00000000000000000e+00
0.00000000000000000e+00
0.00000000000000000e+00
0.00000000000000000e+00
0.00000000000000000e+00
0.00000000000000000e+00
0.00000000000000000e+00
0.00000000000000000e+00
0.00000000000000000e+00
0.00000000000000000e+00
0.00000000000000000e+00
0.00000000000000000e+00
0.00000000000000000e+00
0.00000000000000000e+00
0.00000000000000000e+00
0.00000000000000000e+00
0.00000000000000000e+00
0.00000000000000000e+00
0.00000000000000000e+00
0.00000000000000000e+00
0.00000000000000000e+00
0.00000000000000000e+00
0.00000000000000000e+00
0.00000000000000000e+00
0.00000000000000000e+00
0.00000000000000000e+00
0.00000000000000000e+00
0.00000000000000000e+00
0.00000000000000000e+00
0.00000000000000000e+00
0.00000000000000000e+00
0.00000000000000000e+00
0.00000000000000000e+00
0.00000000000000000e+00
0.00000000000000000e+00
0.00000000000000000e+00
0.00000000000000000e+00
0.00000000000000000e+00
0.00000000000000000e+00
0.00000000000000000e+00
0.00000000000000000e+00
0.00000000000000000e+00
0.00000000000000000e+00
0.00000000000000000e+00
0.00000000000000000e+00
0.00000000000000000e+00
0.00000000000000000e+00
0.00000000000000000e+00
0.00000000000000000e+00
0.00000000000000000e+00
0.00000000000000000e+00
0.00000000000000000e+00
0.00000000000000000e+00
0.00000000000000000e+00
0.00000000000000000e+00
0.00000000000000000e+00
0.00000000000000000e+00
0.00000000000000000e+00
0.00000000000000000e+00
0.00000000000000000e+00
0.00000000000000000e+00
0.00000000000000000e+00
0.00000000000000000e+00
0.00000000000000000e+00
0.00000000000000000e+00
0.00000000000000000e+00
0.00000000000000000e+00
0.00000000000000000e+00
0.00000000000000000e+00
0.00000000000000000e+00
0.00000000000000000e+00
0.00000000000000000e+00
0.00000000000000000e+00
0.00000000000000000e+00
0.00000000000000000e+00
0.00000000000000000e+00
0.00000000000000000e+00
0.00000000000000000e+00
0.00000000000000000e+00
0.00000000000000000e+00
0.00000000000000000e+00
0.00000000000000000e+00
0.00000000000000000e+00
0.00000000000000000e+00
0.00000000000000000e+00
0.00000000000000000e+00
0.00000000000000000e+00
0.00000000000000000e+00
0.00000000000000000e+00
0.00000000000000000e+00
0.00000000000000000e+00
0.00000000000000000e+00
0.00000000000000000e+00
0.00000000000000000e+00
0.00000000000000000e+00
0.00000000000000000e+00
0.00000000000000000e+00
0.00000000000000000e+00
0.00000000000000000e+00
0.00000000000000000e+00
0.00000000000000000e+00
0.00000000000000000e+00
0.00000000000000000e+00
0.00000000000000000e+00
0.00000000000000000e+00
0.00000000000000000e+00
0.00000000000000000e+00
0.00000000000000000e+00
0.00000000000000000e+00
0.00000000000000000e+00
0.00000000000000000e+00
0.00000000000000000e+00

